 Gaussian 09, Revision D.01,
 Gaussian 09:  ES64L-G09RevD.01 24-Apr-2013

 ----------------------------------------------------
 #p b3lyp/tzvp opt empiricaldispersion=gd3bj pop=full
 ----------------------------------------------------

 ------------------------
 pce-example optimization
 ------------------------
 Symbolic Z-matrix:
 Charge =  0 Multiplicity = 1

 SCF Done:  E(RB3LYP) =  -1917.09241872     A.U. after   14 cycles
 SCF Done:  E(RB3LYP) =  -1917.09248075     A.U. after   12 cycles
 SCF Done:  E(RB3LYP) =  -1917.09249664     A.U. after    9 cycles
 SCF Done:  E(RB3LYP) =  -1917.09249964     A.U. after    9 cycles
 Optimization completed.
    -- Stationary point found.

                         Standard orientation:
 ---------------------------------------------------------------------
 Center     Atomic      Atomic             Coordinates (Angstroms)
 Number     Number       Type             X           Y           Z
 ---------------------------------------------------------------------
      1         17           0        1.599820    1.463581   -0.001125
      2         17           0       -1.601598    1.462394    0.000966
      3         17           0       -1.598716   -1.464096   -0.001157
      4          6           0       -0.668781   -0.000272    0.000661
      5          6           0        0.668477    0.000923    0.000239
      6         17           0        1.600602   -1.462109    0.000998
 ---------------------------------------------------------------------

 The electronic state is 1-A.
 Alpha  occ. eigenvalues -- -101.59524-101.59521-101.59518-101.59512 -10.32103
 Alpha  occ. eigenvalues --  -10.32019  -9.50453  -9.50449  -9.50445  -9.50439
 Alpha  occ. eigenvalues --   -7.26913  -7.26909  -7.26905  -7.26900  -7.25821
 Alpha  occ. eigenvalues --   -7.25817  -7.25813  -7.25808  -7.25775  -7.25771
 Alpha  occ. eigenvalues --   -7.25768  -7.25762  -0.96903  -0.91496  -0.87470
 Alpha  occ. eigenvalues --   -0.85236  -0.74681  -0.57596  -0.51992  -0.51845
 Alpha  occ. eigenvalues --   -0.45878  -0.44784  -0.39070  -0.37346  -0.36107
 Alpha  occ. eigenvalues --   -0.35803  -0.35336  -0.34675  -0.31933  -0.26748
 Alpha virt. eigenvalues --   -0.04584  -0.02932  -0.02318  -0.01159   0.08952
 Alpha virt. eigenvalues --    0.11913   0.16863   0.19900   0.20808   0.23271
 Alpha virt. eigenvalues --    0.24204   0.24495   0.28208   0.29239   0.29728

 Mulliken charges:
               1
     1  Cl   0.017892
     2  Cl   0.017394
     3  Cl   0.017747
     4  C   -0.034999
     5  C   -0.035387
     6  Cl   0.017353
 Sum of Mulliken charges =   0.00000

 Dipole moment (field-independent basis, Debye):
    X=              0.0003    Y=              0.0013    Z=             -0.0004  Tot=              0.0014
 Quadrupole moment (field-independent basis, Debye-Ang):
   XX=            -60.9511   YY=            -58.8412   ZZ=            -61.6632
   XY=              0.0074   XZ=              0.0008   YZ=              0.0000

 Normal termination of Gaussian 09 at Fri Jul  9 15:20:22 2021.
