                         Program Version 4.0.1.2 - RELEASE -
|  1> !PAL16 BLYP D3BJ TZVP DEF2/J RI SCFCONV8 TIGHTSCF OPT Grid5 GridX5 NOFINALGRID
|  2>
|  3> * xyz 0 1
|  4> C      -6.99611829       0.66091257      -4.65400498
|  5> C      -6.75739398      -0.69552874      -4.45969197
|  6> C      -6.79255432      -1.54672949      -5.55915859
|  7> C      -7.05260973      -1.05182300      -6.82649826
|  8> C      -7.28347866       0.30196392      -7.01059841
|  9> C      -7.25575678       1.15724677      -5.92056438
| 10> C      -6.45274119      -1.22749387      -3.10063765
| 11> C      -7.41286833      -2.05015166      -2.51989995
| 12> N      -7.31376588      -2.70468646      -1.32399473
| 13> C      -8.45023639      -3.41970753      -1.07029252
| 14> C      -9.33035320      -3.18860386      -2.17107810
| 15> C      -8.70116357      -2.36404017      -3.04937491
| 16> C      -8.69186995      -4.21891290       0.04235901
| 17> C      -9.98162456      -4.96410596       0.07623135
| 18> C     -10.22429932      -6.00574267      -0.81385913
| 19> C     -11.40268306      -6.72673129      -0.75383637
| 20> C     -12.36207046      -6.40878242       0.20014725
| 21> C     -12.13417232      -5.36043182       1.08346041
| 22> C     -10.95412131      -4.64636869       1.02101728
| 23> C     -13.63273611      -7.16074541       0.32142647
| 24> O     -13.74471683      -8.16100884      -0.57565562
| 25> H     -10.32080611      -3.60036135      -2.25791942
| 26> H      -9.08554577      -1.98363097      -3.97956842
| 27> C      -7.81831755      -4.38634458       1.12113563
| 28> C      -8.06837856      -5.31983234       2.20955246
| 29> C      -7.02706630      -5.21006977       3.05015534
| 30> C      -6.14174168      -4.20791783       2.47833395
| 31> N      -6.63978097      -3.74255691       1.30537760
| 32> H      -8.91744695      -5.97610239       2.29437404
| 33> C      -4.94913001      -3.81064097       3.08640703
| 34> C      -4.04432720      -2.89780702       2.55602091
| 35> N      -4.12591048      -2.27585156       1.34191708
| 36> C      -3.04870873      -1.45801301       1.14803938
| 37> C      -2.24618915      -1.55460527       2.32569234
| 38> C      -2.84676566      -2.42836998       3.17534750
| 39> H      -6.85168959      -5.75505268       3.96188284
| 40> C      -2.78585596      -0.69368537       0.01658833
| 41> C      -1.51981304       0.09350185       0.02091813
| 42> C      -1.55552637       1.48210104       0.10068417
| 43> C      -0.38643544       2.21981257       0.10682169
| 44> C       0.84206773       1.57390834       0.03218118
| 45> C       0.88673505       0.18741725      -0.04893643
| 46> C      -0.28477650      -0.54448103      -0.05309484
| 47> H      -1.33083536      -1.01276069       2.48772098
| 48> H      -2.50997032      -2.72727194       4.15261027
| 49> C       2.12337823       2.31833562       0.03848055
| 50> O       3.21404962       1.81345111      -0.01152079
| 51> O     -14.49492123      -6.92986529       1.12791379
| 52> C      -4.60005654      -4.40969346       4.40706099
| 53> C      -3.57501917      -5.34408901       4.50620961
| 54> C      -3.25588993      -5.91446700       5.72748172
| 55> C      -3.95741531      -5.55429731       6.86702027
| 56> C      -4.97767171      -4.62059396       6.77831023
| 57> C      -5.29717864      -4.05268870       5.55588200
| 58> C      -3.60442484      -0.61579852      -1.11331280
| 59> N      -4.81633665      -1.20391087      -1.26741444
| 60> C      -5.23743329      -0.86674165      -2.51193638
| 61> C      -4.23864287      -0.05267797      -3.18768255
| 62> C      -3.22777064       0.10705494      -2.31815063
| 63> H      -4.31025173       0.32181931      -4.19429678
| 64> H      -2.30406034       0.63900938      -2.46978952
| 65> O       1.95964900       3.65454139       0.11117914
| 66> H      -3.71043219      -6.00038977       7.82156387
| 67> H      -7.48319125       0.68925084      -8.00114231
| 68> H      -6.52385363      -2.64162028      -0.69495238
| 69> H      -4.89115861      -2.38178288       0.68854193
| 70> H      -2.46040300      -6.64596192       5.78738070
| 71> H      -3.03251236      -5.62966198       3.61403643
| 72> H      -6.09499064      -3.32446566       5.48614600
| 73> H      -5.52795457      -4.33259762       7.66461861
| 74> H     -11.57883587      -7.54339781      -1.43909192
| 75> H      -9.47075055      -6.26235851      -1.54663392
| 76> H     -10.77391112      -3.83438950       1.71286114
| 77> H     -12.89205560      -5.12054058       1.81657962
| 78> H      -7.06834896      -1.72538513      -7.67360772
| 79> H      -6.60231859      -2.60283100      -5.41721392
| 80> H      -6.97429372       1.32867292      -3.80256181
| 81> H      -7.43696878       2.21567826      -6.05548255
| 82> H       1.84907390      -0.30190644      -0.11170124
| 83> H      -0.24955685      -1.62367178      -0.12187321
| 84> H      -2.51213585       1.98365907       0.16242050
| 85> H      -0.42141072       3.29769378       0.17253733
| 86> H     -14.59711044      -8.58959226      -0.41472923
| 87> H       2.84390359       4.04720136       0.11144875
| 88> *
| 89>
| 90>                          ****END OF INPUT****
 Total Charge           Charge          ....    0
 Multiplicity           Mult            ....    1
 Number of Electrons    NEL             ....  366
Dispersion correction           -0.277142559
FINAL SINGLE POINT ENERGY     -2291.096547805410
Dispersion correction            ... done
Dispersion correction           -0.275134631
FINAL SINGLE POINT ENERGY     -2291.112145301275
Dispersion correction            ... done
Dispersion correction           -0.274999249
FINAL SINGLE POINT ENERGY     -2291.113048232665
Dispersion correction            ... done
FINAL SINGLE POINT ENERGY     -2291.113175858107
FINAL SINGLE POINT ENERGY     -2291.113194764798
FINAL SINGLE POINT ENERGY     -2291.113253766124
Dispersion correction            ... done
Dispersion correction           -0.275253710
FINAL SINGLE POINT ENERGY     -2291.113260928493
Dispersion correction            ... done
Dispersion correction           -0.275274333
FINAL SINGLE POINT ENERGY     -2291.113265217617
Dispersion correction            ... done
                    ***********************HURRAY********************

CARTESIAN COORDINATES (ANGSTROEM)
---------------------------------
  C     -7.036556    0.754901   -4.598449
  C     -6.819344   -0.627146   -4.450582
  C     -6.927254   -1.454573   -5.583077
  C     -7.241639   -0.912885   -6.834464
  C     -7.457071    0.464374   -6.970810
  C     -7.354294    1.296589   -5.848776
  C     -6.479207   -1.204068   -3.109723
  C     -7.439641   -2.052569   -2.529122
  N     -7.315449   -2.743374   -1.333442
  C     -8.457364   -3.486055   -1.079492
  C     -9.358475   -3.237148   -2.174880
  C     -8.743007   -2.370951   -3.050911
  C     -8.687055   -4.305226    0.041922
  C     -9.975839   -5.065631    0.060292
  C    -10.239327   -6.060906   -0.899965
  C    -11.439315   -6.773053   -0.882653
  C    -12.408515   -6.498313    0.100044
  C    -12.153023   -5.503402    1.061703
  C    -10.951059   -4.798368    1.041296
  C    -13.706670   -7.224640    0.166040
  O    -13.843516   -8.168027   -0.832578
  H    -10.350667   -3.659644   -2.259702
  H     -9.146558   -1.969451   -3.970730
  C     -7.809400   -4.460658    1.139563
  C     -8.044748   -5.409521    2.232905
  C     -6.998460   -5.274909    3.094324
  C     -6.122642   -4.244142    2.528842
  N     -6.627057   -3.779222    1.332426
  H     -8.881377   -6.092683    2.309217
  C     -4.927078   -3.817606    3.149776
  C     -4.004143   -2.906149    2.604637
  N     -4.065998   -2.320266    1.349597
  C     -2.981704   -1.480865    1.150355
  C     -2.198359   -1.531837    2.357718
  C     -2.816426   -2.393490    3.236301
  H     -6.816748   -5.824241    4.009492
  C     -2.717378   -0.719577   -0.003760
  C     -1.441363    0.062211   -0.009564
  C     -1.464418    1.469549   -0.043994
  C     -0.278640    2.205019   -0.047584
  C      0.962777    1.542633   -0.019358
  C      0.993707    0.136302    0.013188
  C     -0.194294   -0.592501    0.020098
  H     -1.291604   -0.965843    2.523770
  H     -2.498761   -2.650472    4.237860
  C      2.259093    2.275235   -0.022803
  O      3.364120    1.755317    0.009281
  O    -14.581231   -7.033885    0.997318
  C     -4.600291   -4.371296    4.503637
  C     -3.492291   -5.218953    4.684783
  C     -3.190533   -5.737612    5.948913
  C     -3.990411   -5.412488    7.051785
  C     -5.094604   -4.567406    6.882405
  C     -5.397908   -4.051779    5.617549
  C     -3.553203   -0.634129   -1.141004
  N     -4.796462   -1.213382   -1.276087
  C     -5.237216   -0.855467   -2.532868
  C     -4.226649   -0.050945   -3.226210
  C     -3.181984    0.086598   -2.363202
  H     -4.308225    0.330048   -4.236424
  H     -2.244409    0.600309   -2.535096
  O      2.099277    3.645675   -0.065955
  H     -3.755452   -5.815336    8.035898
  H     -7.702462    0.886152   -7.944392
  H     -6.520423   -2.668110   -0.698263
  H     -4.833669   -2.441768    0.688492
  H     -2.334123   -6.399431    6.071251
  H     -2.875805   -5.477699    3.825432
  H     -6.253768   -3.392086    5.485327
  H     -5.718735   -4.306425    7.736062
  H    -11.627607   -7.545987   -1.623016
  H     -9.487124   -6.282253   -1.654799
  H    -10.759019   -4.025432    1.782791
  H    -12.910611   -5.293959    1.813766
  H     -7.313065   -1.565702   -7.703464
  H     -6.751468   -2.523968   -5.478147
  H     -6.959963    1.400003   -3.724862
  H     -7.524960    2.367964   -5.945847
  H      1.958124   -0.366818    0.026575
  H     -0.165929   -1.680368    0.034989
  H     -2.423682    1.983098   -0.059542
  H     -0.308749    3.291159   -0.066917
  H    -14.721362   -8.579223   -0.690956
  H      3.004976    4.019090   -0.061830

 Multiplicity           Mult            ....    1
 Number of Electrons    NEL             ....  366
 Basis Dimension        Dim             .... 1206

ORBITAL ENERGIES
----------------

  NO   OCC          E(Eh)            E(eV)
   0   2.0000     -18.822681      -512.1912
   1   2.0000     -18.822645      -512.1902
   2   2.0000     -18.767216      -510.6819
   3   2.0000     -18.767195      -510.6814
   4   2.0000     -14.050714      -382.3394
   5   2.0000     -14.050643      -382.3374
   6   2.0000     -13.986334      -380.5875
   7   2.0000     -13.986298      -380.5865
   8   2.0000     -10.041403      -273.2405
   9   2.0000     -10.041398      -273.2403
  10   2.0000      -9.963666      -271.1251
  11   2.0000      -9.963605      -271.1235
  12   2.0000      -9.962466      -271.0925
  13   2.0000      -9.962383      -271.0902
  14   2.0000      -9.944440      -270.6020
  15   2.0000      -9.944406      -270.6010
  16   2.0000      -9.943349      -270.5723
  17   2.0000      -9.943283      -270.5705
  18   2.0000      -9.940585      -270.4971
  19   2.0000      -9.940581      -270.4970
  20   2.0000      -9.939251      -270.4608
  21   2.0000      -9.939249      -270.4607
  22   2.0000      -9.937555      -270.4146
  23   2.0000      -9.937506      -270.4133
  24   2.0000      -9.937380      -270.4099
  25   2.0000      -9.937351      -270.4091
  26   2.0000      -9.930199      -270.2144
  27   2.0000      -9.929898      -270.2063
  28   2.0000      -9.929128      -270.1853
  29   2.0000      -9.928889      -270.1788
  30   2.0000      -9.927288      -270.1352
  31   2.0000      -9.927081      -270.1296
  32   2.0000      -9.925835      -270.0957
  33   2.0000      -9.925444      -270.0851
  34   2.0000      -9.925289      -270.0808
  35   2.0000      -9.924909      -270.0705
  36   2.0000      -9.920948      -269.9627
  37   2.0000      -9.920799      -269.9587
  38   2.0000      -9.920335      -269.9460
  39   2.0000      -9.920187      -269.9420
  40   2.0000      -9.919169      -269.9143
  41   2.0000      -9.918939      -269.9080
  42   2.0000      -9.918760      -269.9032
  43   2.0000      -9.918677      -269.9009
  44   2.0000      -9.918531      -269.8970
  45   2.0000      -9.918530      -269.8969
  46   2.0000      -9.918300      -269.8907
  47   2.0000      -9.918174      -269.8872
  48   2.0000      -9.918120      -269.8858
  49   2.0000      -9.917822      -269.8776
  50   2.0000      -9.906249      -269.5627
  51   2.0000      -9.906102      -269.5587
  52   2.0000      -9.905627      -269.5458
  53   2.0000      -9.905469      -269.5415
  54   2.0000      -1.007279       -27.4094
  55   2.0000      -1.007278       -27.4094
  56   2.0000      -0.925294       -25.1785
  57   2.0000      -0.925288       -25.1784
  58   2.0000      -0.899767       -24.4839
  59   2.0000      -0.898464       -24.4484
  60   2.0000      -0.853996       -23.2384
  61   2.0000      -0.851418       -23.1683
  62   2.0000      -0.795620       -21.6499
  63   2.0000      -0.794490       -21.6192
  64   2.0000      -0.784898       -21.3582
  65   2.0000      -0.784169       -21.3383
  66   2.0000      -0.751748       -20.4561
  67   2.0000      -0.741317       -20.1723
  68   2.0000      -0.732304       -19.9270
  69   2.0000      -0.725933       -19.7536
  70   2.0000      -0.715564       -19.4715
  71   2.0000      -0.710640       -19.3375
  72   2.0000      -0.690738       -18.7959
  73   2.0000      -0.686176       -18.6718
  74   2.0000      -0.685672       -18.6581
  75   2.0000      -0.683291       -18.5933
  76   2.0000      -0.680350       -18.5133
  77   2.0000      -0.678109       -18.4523
  78   2.0000      -0.676510       -18.4088
  79   2.0000      -0.676156       -18.3991
  80   2.0000      -0.664055       -18.0699
  81   2.0000      -0.653216       -17.7749
  82   2.0000      -0.648677       -17.6514
  83   2.0000      -0.613930       -16.7059
  84   2.0000      -0.598945       -16.2981
  85   2.0000      -0.596966       -16.2443
  86   2.0000      -0.583331       -15.8732
  87   2.0000      -0.561304       -15.2738
  88   2.0000      -0.560283       -15.2461
  89   2.0000      -0.551540       -15.0082
  90   2.0000      -0.549434       -14.9509
  91   2.0000      -0.547667       -14.9028
  92   2.0000      -0.543923       -14.8009
  93   2.0000      -0.542184       -14.7536
  94   2.0000      -0.538134       -14.6434
  95   2.0000      -0.534620       -14.5477
  96   2.0000      -0.532891       -14.5007
  97   2.0000      -0.530527       -14.4364
  98   2.0000      -0.520119       -14.1532
  99   2.0000      -0.515868       -14.0375
 100   2.0000      -0.506187       -13.7740
 101   2.0000      -0.495920       -13.4947
 102   2.0000      -0.490999       -13.3608
 103   2.0000      -0.479256       -13.0412
 104   2.0000      -0.477472       -12.9927
 105   2.0000      -0.472668       -12.8619
 106   2.0000      -0.461666       -12.5626
 107   2.0000      -0.460884       -12.5413
 108   2.0000      -0.452611       -12.3162
 109   2.0000      -0.451526       -12.2866
 110   2.0000      -0.443815       -12.0768
 111   2.0000      -0.435014       -11.8373
 112   2.0000      -0.431210       -11.7338
 113   2.0000      -0.420929       -11.4541
 114   2.0000      -0.416064       -11.3217
 115   2.0000      -0.414081       -11.2677
 116   2.0000      -0.412919       -11.2361
 117   2.0000      -0.411261       -11.1910
 118   2.0000      -0.407987       -11.1019
 119   2.0000      -0.406716       -11.0673
 120   2.0000      -0.405859       -11.0440
 121   2.0000      -0.401564       -10.9271
 122   2.0000      -0.400177       -10.8894
 123   2.0000      -0.400007       -10.8848
 124   2.0000      -0.399762       -10.8781
 125   2.0000      -0.397962       -10.8291
 126   2.0000      -0.394495       -10.7348
 127   2.0000      -0.393433       -10.7059
 128   2.0000      -0.386814       -10.5257
 129   2.0000      -0.386352       -10.5132
 130   2.0000      -0.382076       -10.3968
 131   2.0000      -0.380395       -10.3511
 132   2.0000      -0.379349       -10.3226
 133   2.0000      -0.378437       -10.2978
 134   2.0000      -0.377421       -10.2702
 135   2.0000      -0.376508       -10.2453
 136   2.0000      -0.372122       -10.1259
 137   2.0000      -0.369194       -10.0463
 138   2.0000      -0.362383        -9.8609
 139   2.0000      -0.357276        -9.7220
 140   2.0000      -0.353608        -9.6222
 141   2.0000      -0.350427        -9.5356
 142   2.0000      -0.350007        -9.5242
 143   2.0000      -0.345079        -9.3901
 144   2.0000      -0.341482        -9.2922
 145   2.0000      -0.339806        -9.2466
 146   2.0000      -0.336763        -9.1638
 147   2.0000      -0.335555        -9.1309
 148   2.0000      -0.328953        -8.9513
 149   2.0000      -0.328391        -8.9360
 150   2.0000      -0.324982        -8.8432
 151   2.0000      -0.322812        -8.7842
 152   2.0000      -0.321312        -8.7434
 153   2.0000      -0.318593        -8.6694
 154   2.0000      -0.313699        -8.5362
 155   2.0000      -0.313680        -8.5357
 156   2.0000      -0.309428        -8.4200
 157   2.0000      -0.308712        -8.4005
 158   2.0000      -0.308035        -8.3821
 159   2.0000      -0.305621        -8.3164
 160   2.0000      -0.286695        -7.8014
 161   2.0000      -0.281891        -7.6706
 162   2.0000      -0.281596        -7.6626
 163   2.0000      -0.261056        -7.1037
 164   2.0000      -0.254783        -6.9330
 165   2.0000      -0.241930        -6.5833
 166   2.0000      -0.241608        -6.5745
 167   2.0000      -0.240382        -6.5411
 168   2.0000      -0.238708        -6.4956
 169   2.0000      -0.238652        -6.4941
 170   2.0000      -0.237889        -6.4733
 171   2.0000      -0.237562        -6.4644
 172   2.0000      -0.233488        -6.3535
 173   2.0000      -0.232328        -6.3220
 174   2.0000      -0.230691        -6.2774
 175   2.0000      -0.230410        -6.2698
 176   2.0000      -0.229998        -6.2586
 177   2.0000      -0.229084        -6.2337
 178   2.0000      -0.225803        -6.1444
 179   2.0000      -0.212377        -5.7791
 180   2.0000      -0.209007        -5.6874
 181   2.0000      -0.188385        -5.1262
 182   2.0000      -0.175692        -4.7808
 183   0.0000      -0.113615        -3.0916
 184   0.0000      -0.111084        -3.0228
 185   0.0000      -0.088995        -2.4217
 186   0.0000      -0.085633        -2.3302
 187   0.0000      -0.063445        -1.7264

MULLIKEN ATOMIC CHARGES
-----------------------
   0 C :   -0.092321
   1 C :   -0.132379
   2 C :   -0.100135
   3 C :   -0.062914
   4 C :   -0.101992
   5 C :   -0.063744
   6 C :   -0.223899
   7 C :    0.085170
   8 N :   -0.012803
   9 C :    0.072603
  10 C :   -0.133516
  11 C :   -0.146638
  12 C :   -0.212788
  13 C :   -0.081630
  14 C :   -0.101123
  15 C :   -0.026496
  16 C :   -0.078738
  17 C :   -0.048907
  18 C :   -0.096696
  19 C :    0.150390
  20 O :   -0.266377
  21 H :    0.159184
  22 H :    0.158573
  23 C :    0.053297
  24 C :   -0.133851
  25 C :   -0.147687
  26 C :    0.066638
  27 N :   -0.101655
  28 H :    0.143599
  29 C :   -0.223241
  30 C :    0.084637
  31 N :   -0.012894
  32 C :    0.071119
  33 C :   -0.134448
  34 C :   -0.146186
  35 H :    0.142627
  36 C :   -0.212651
  37 C :   -0.081170
  38 C :   -0.093626
  39 C :   -0.027294
  40 C :   -0.078892
  41 C :   -0.047877
  42 C :   -0.105226
  43 H :    0.159954
  44 H :    0.158831
  45 C :    0.150388
  46 O :   -0.282578
  47 O :   -0.282185
  48 C :   -0.131705
  49 C :   -0.100474
  50 C :   -0.062982
  51 C :   -0.101954
  52 C :   -0.063693
  53 C :   -0.092875
  54 C :    0.054977
  55 N :   -0.101471
  56 C :    0.066968
  57 C :   -0.148206
  58 C :   -0.132975
  59 H :    0.142147
  60 H :    0.143009
  61 O :   -0.265911
  62 H :    0.102776
  63 H :    0.102633
  64 H :    0.316342
  65 H :    0.316682
  66 H :    0.099675
  67 H :    0.112458
  68 H :    0.112842
  69 H :    0.100041
  70 H :    0.125870
  71 H :    0.117969
  72 H :    0.118808
  73 H :    0.131091
  74 H :    0.099415
  75 H :    0.112072
  76 H :    0.112497
  77 H :    0.099795
  78 H :    0.130760
  79 H :    0.118548
  80 H :    0.118222
  81 H :    0.126241
  82 H :    0.278979
  83 H :    0.278982
Sum of atomic charges:   -0.0000000

LOEWDIN ATOMIC CHARGES
----------------------
   0 C :   -0.057393
   1 C :   -0.054610
   2 C :   -0.059966
   3 C :   -0.072219
   4 C :   -0.073021
   5 C :   -0.071490
   6 C :   -0.037574
   7 C :    0.025589
   8 N :    0.013113
   9 C :    0.025635
  10 C :   -0.066642
  11 C :   -0.063192
  12 C :   -0.042801
  13 C :   -0.034019
  14 C :   -0.056180
  15 C :   -0.038590
  16 C :   -0.091175
  17 C :   -0.028833
  18 C :   -0.052592
  19 C :    0.130613
  20 O :   -0.130723
  21 H :    0.090978
  22 H :    0.092058
  23 C :   -0.001116
  24 C :   -0.077952
  25 C :   -0.074089
  26 C :   -0.000996
  27 N :   -0.213224
  28 H :    0.085993
  29 C :   -0.037239
  30 C :    0.025679
  31 N :    0.013152
  32 C :    0.025682
  33 C :   -0.066411
  34 C :   -0.062871
  35 H :    0.087060
  36 C :   -0.042775
  37 C :   -0.033992
  38 C :   -0.053667
  39 C :   -0.037836
  40 C :   -0.091182
  41 C :   -0.029597
  42 C :   -0.055125
  43 H :    0.091173
  44 H :    0.092194
  45 C :    0.130586
  46 O :   -0.224610
  47 O :   -0.224298
  48 C :   -0.054746
  49 C :   -0.059908
  50 C :   -0.072084
  51 C :   -0.072884
  52 C :   -0.071359
  53 C :   -0.057431
  54 C :   -0.001206
  55 N :   -0.213198
  56 C :   -0.001155
  57 C :   -0.074382
  58 C :   -0.078186
  59 H :    0.086922
  60 H :    0.085834
  61 O :   -0.130405
  62 H :    0.077950
  63 H :    0.077899
  64 H :    0.148162
  65 H :    0.148132
  66 H :    0.078672
  67 H :    0.085138
  68 H :    0.086163
  69 H :    0.078839
  70 H :    0.090293
  71 H :    0.088050
  72 H :    0.089563
  73 H :    0.093780
  74 H :    0.078579
  75 H :    0.085071
  76 H :    0.086124
  77 H :    0.078746
  78 H :    0.093624
  79 H :    0.088458
  80 H :    0.089158
  81 H :    0.090453
  82 H :    0.154903
  83 H :    0.154930

  Mayer bond orders larger than 0.1
B(  0-C ,  1-C ) :   1.4262 B(  0-C ,  5-C ) :   1.3480 B(  0-C , 76-H ) :   0.9753
B(  1-C ,  2-C ) :   1.4121 B(  1-C ,  6-C ) :   0.8481 B(  2-C ,  3-C ) :   1.3480
B(  2-C , 75-H ) :   0.9767 B(  3-C ,  4-C ) :   1.3814 B(  3-C , 74-H ) :   0.9680
B(  4-C ,  5-C ) :   1.3805 B(  4-C , 63-H ) :   0.9666 B(  5-C , 77-H ) :   0.9673
B(  6-C ,  7-C ) :   1.2952 B(  6-C , 56-C ) :   1.2781 B(  7-C ,  8-N ) :   1.2232
B(  7-C , 11-C ) :   1.2867 B(  7-C , 56-C ) :   0.1209 B(  8-N ,  9-C ) :   1.2265
B(  8-N , 64-H ) :   0.8074 B(  9-C , 10-C ) :   1.2840 B(  9-C , 12-C ) :   1.2989
B(  9-C , 23-C ) :   0.1267 B( 10-C , 11-C ) :   1.4950 B( 10-C , 21-H ) :   0.9069
B( 11-C , 22-H ) :   0.9106 B( 12-C , 13-C ) :   0.8398 B( 12-C , 14-C ) :  -0.1084
B( 12-C , 18-C ) :  -0.1075 B( 12-C , 23-C ) :   1.2846 B( 13-C , 14-C ) :   1.3887
B( 13-C , 18-C ) :   1.3918 B( 14-C , 15-C ) :   1.3041 B( 14-C , 71-H ) :   0.9828
B( 15-C , 16-C ) :   1.3330 B( 15-C , 70-H ) :   0.9657 B( 16-C , 17-C ) :   1.4028
B( 16-C , 19-C ) :   0.9918 B( 17-C , 18-C ) :   1.3250 B( 17-C , 73-H ) :   0.9562
B( 18-C , 72-H ) :   0.9857 B( 19-C , 20-O ) :   1.1579 B( 19-C , 47-O ) :   2.0357
B( 20-O , 82-H ) :   0.8917 B( 23-C , 24-C ) :   1.1462 B( 23-C , 26-C ) :   0.1185
B( 23-C , 27-N ) :   1.4034 B( 24-C , 25-C ) :   1.6136 B( 24-C , 28-H ) :   0.9087
B( 25-C , 26-C ) :   1.1497 B( 25-C , 35-H ) :   0.9135 B( 26-C , 27-N ) :   1.3999
B( 26-C , 29-C ) :   1.2780 B( 26-C , 30-C ) :   0.1208 B( 29-C , 30-C ) :   1.2945
B( 29-C , 48-C ) :   0.8482 B( 30-C , 31-N ) :   1.2231 B( 30-C , 34-C ) :   1.2870
B( 31-N , 32-C ) :   1.2266 B( 31-N , 65-H ) :   0.8073 B( 32-C , 33-C ) :   1.2841
B( 32-C , 36-C ) :   1.3010 B( 32-C , 54-C ) :   0.1267 B( 33-C , 34-C ) :   1.4956
B( 33-C , 43-H ) :   0.9062 B( 34-C , 44-H ) :   0.9107 B( 36-C , 37-C ) :   0.8402
B( 36-C , 38-C ) :  -0.1043 B( 36-C , 42-C ) :  -0.1113 B( 36-C , 54-C ) :   1.2819
B( 37-C , 38-C ) :   1.4023 B( 37-C , 42-C ) :   1.3779 B( 38-C , 39-C ) :   1.3035
B( 38-C , 80-H ) :   0.9823 B( 39-C , 40-C ) :   1.3323 B( 39-C , 81-H ) :   0.9650
B( 40-C , 41-C ) :   1.4034 B( 40-C , 45-C ) :   0.9919 B( 41-C , 42-C ) :   1.3254
B( 41-C , 78-H ) :   0.9569 B( 42-C , 79-H ) :   0.9867 B( 45-C , 46-O ) :   2.0351
B( 45-C , 61-O ) :   1.1584 B( 48-C , 49-C ) :   1.4117 B( 48-C , 53-C ) :   1.4257
B( 49-C , 50-C ) :   1.3483 B( 49-C , 67-H ) :   0.9767 B( 50-C , 51-C ) :   1.3813
B( 50-C , 66-H ) :   0.9680 B( 51-C , 52-C ) :   1.3805 B( 51-C , 62-H ) :   0.9665
B( 52-C , 53-C ) :   1.3482 B( 52-C , 69-H ) :   0.9673 B( 53-C , 68-H ) :   0.9754
B( 54-C , 55-N ) :   1.4037 B( 54-C , 56-C ) :   0.1183 B( 54-C , 58-C ) :   1.1459
B( 55-N , 56-C ) :   1.4001 B( 56-C , 57-C ) :   1.1496 B( 57-C , 58-C ) :   1.6126
B( 57-C , 59-H ) :   0.9136 B( 58-C , 60-H ) :   0.9093 B( 61-O , 83-H ) :   0.8916

Dispersion correction           -0.275288718
FINAL SINGLE POINT ENERGY     -2291.113265980273

DIPOLE MOMENT
-------------
                                X             Y             Z
Electronic contribution:      0.06531      -0.09367       0.36635
Nuclear contribution   :     -0.16146       0.22757      -0.78399
                        -----------------------------------------
Total Dipole Moment    :     -0.09615       0.13390      -0.41765
                        -----------------------------------------
Magnitude (a.u.)       :      0.44900
Magnitude (Debye)      :      1.14127

                             ****ORCA TERMINATED NORMALLY****
TOTAL RUN TIME: 0 days 0 hours 17 minutes 32 seconds 710 msec
